
                                 *****************
                                 * O   R   C   A *
                                 *****************

                                            #,                                       
                                            ###                                      
                                            ####                                     
                                            #####                                    
                                            ######                                   
                                           ########,                                 
                                     ,,################,,,,,                         
                               ,,#################################,,                 
                          ,,##########################################,,             
                       ,#########################################, ''#####,          
                    ,#############################################,,   '####,        
                  ,##################################################,,,,####,       
                ,###########''''           ''''###############################       
              ,#####''   ,,,,##########,,,,          '''####'''          '####       
            ,##' ,,,,###########################,,,                        '##       
           ' ,,###''''                  '''############,,,                           
         ,,##''                                '''############,,,,        ,,,,,,###''
      ,#''                                            '''#######################'''  
     '                                                          ''''####''''         
             ,#######,   #######,   ,#######,      ##                                
            ,#'     '#,  ##    ##  ,#'     '#,    #''#        ,####,    ,#,          
            ##       ##  ##   ,#'  ##            #'  '#       #'       ,# #          
            ##       ##  #######   ##           ,######,      #####,      #          
            '#,     ,#'  ##    ##  '#,     ,#' ,#      #,     #,   #      #          
             '#######'   ##     ##  '#######'  #'      '#     '####' #    #          



                #########################################################
                #                        -***-                          #
                #          Department of theory and spectroscopy        #
                #                                                       #
                #                      Frank Neese                      #
                #                                                       #
                #     Directorship, Architecture, Infrastructure        #
                #                    SHARK, DRIVERS                     #
                #        Core code/Algorithms in most modules           #
                #                                                       #
                #        Max Planck Institute fuer Kohlenforschung      #
                #                Kaiser Wilhelm Platz 1                 #
                #                 D-45470 Muelheim/Ruhr                 #
                #                      Germany                          #
                #                                                       #
                #                  All rights reserved                  #
                #                        -***-                          #
                #########################################################


                         Program Version 6.1.1  -  RELEASE   -
                                (GIT: $487d211c$)
                          ($2025-11-21 10:33:24 +0100$)


 With contributions from (in alphabetic order):
[Max-Planck-Institut fuer Kohlenforschung]                               
  Daniel Aravena         : Magnetic Suceptibility                        
  Michael Atanasov       : Ab Initio Ligand Field Theory (pilot matlab implementation)
  Alexander A. Auer      : GIAO ZORA, VPT2 properties, NMR spectrum      
  Ute Becker             : All parallelization in ORCA, NUMFREQ, NUMCALC 
  Giovanni Bistoni       : ED, misc. LED, open-shell LED, HFLD           
  Dmytro Bykov           : pre 5.0 version of the SCF Hessian            
  Marcos Casanova-Páez   : Triplet and SCS-CIS(D). UHF-(DLPNO)-IP/EA/STEOM-CCSD. UHF-CVS-IP/STEOM-CCSD   
  Vijay G. Chilkuri      : MRCI spin determinant printing, contributions to CSF-ICE 
  Pauline Colinet        : FMM embedding                                 
  Dipayan Datta          : RHF DLPNO-CCSD density                        
  Achintya Kumar Dutta   : EOM-CC, STEOM-CC                              
  Nicolas Foglia         : Exact transition moments, OPA infrastructure, MCD improvements    
  Dmitry Ganyushin       : Spin-Orbit,Spin-Spin,Magnetic field MRCI      
  Miquel Garcia-Rates    : C-PCM and meta-GGA Hessian, CCSD/C-PCM, Gaussian charge scheme 
  Tiago L. C. Gouveia    : GS-ROHF, GS-ROCIS                             
  Yang Guo               : DLPNO-NEVPT2, F12-NEVPT2, CIM, IAO-localization        
  Andreas Hansen         : Spin unrestricted coupled pair/coupled cluster methods 
  Ingolf Harden          : AUTO-CI MPn and infrastructure                
  Benjamin Helmich-Paris : MC-RPA, TRAH-(SCF,CASSCF), AVAS, COSX integrals, SCF dyn. polar., MC-PDFT, srDFT 
  Lee Huntington         : MR-EOM, pCC                                   
  Robert Izsak           : Overlap fitted RIJCOSX, COSX-SCS-MP3, EOM     
  Riya Kayal             : Wick's Theorem for AUTO-CI, AUTO-CI UHF-CCSDT 
  Emily Kempfer          : AUTO-CI RHF CISDT and CCSDT, approximate NEVPT4
  Christian Kollmar      : KDIIS, OOCD, Brueckner-CCSD(T), CCSD density, CASPT2, CASPT2-K, improved NEVPT2 
  Axel Koslowski         : Symmetry handling                             
  Simone Kossmann        : meta-GGA functionals, TD-DFT gradient, OOMP2, (MP2 Hessian; deprecated post 5.0) 
  Lucas Lang             : DCDCAS, Hyperfine gauge corrections, ICE-SOC+SSC
  Marvin Lechner         : AUTO-CI (C++ implementation), FIC-MRCC        
  Spencer Leger          : CASSCF response                               
  Dagmar Lenk            : GEPOL surface, SMD, ORCA-2-JSON               
  Dimitrios Liakos       : Extrapolation schemes; Compound Job, Property file
  Dimitrios Manganas     : Further ROCIS development; embedding schemes. LFT, Crystal Embedding 
  Dimitrios Pantazis     : SARC Basis sets                               
  Anastasios Papadopoulos: AUTO-CI, single reference methods and gradients 
  Taras Petrenko         : pre 6.0 DFT Hessian and TD-DFT gradient,  ECA, NRVS 
  Petra Pikulova         : Analytic Raman intensities                    
  Peter Pinski           : DLPNO-MP2, DLPNO-MP2 Gradient                 
  Shashank Vittal Rao    : ES-AILFT, MagRelax                            
  Christoph Reimann      : Effective Core Potentials                     
  Marius Retegan         : Local ZFS, SOC                                
  Christoph Riplinger    : Optimizer, TS searches, QM/MM, DLPNO-CCSD(T), (RO)-DLPNO pert. Triples 
  Michael Roemelt        : Original ROCIS implementation, recursive CI coupling coefficients
  Masaaki Saitow         : Open-shell DLPNO-CCSD energy and density      
  Barbara Sandhoefer     : DKH picture change effects                    
  Yorick L. A. Schmerwitz: GMF and freeze-and-release deltaSCF, NEB S-IDPP initial path                    
  Kantharuban Sivalingam : CASSCF convergence/infrastructure, NEVPT2, NEVPT3, NEVPT4(SD), FIC-MRCI and CEPA variants
  Bernardo de Souza      : ESD, SOC TD-DFT                               
  Georgi L. Stoychev     : AutoAux, RI-MP2 NMR, DLPNO-MP2 response, X2C  
  Van Anh Tran           : RI-MP2 g-tensors                              
  Willem Van den Heuvel  : Paramagnetic NMR                              
  Zikuan Wang            : NOTCH, Electric field optimization            
  Frank Wennmohs         : Technical directorship and infrastructure     
  Hang Xu                : AUTO-CI-Response properties                   
                                                                         
[FACCTs GmbH]                                                            
  Markus Bursch, Nicolas Foglia, Miquel Garcia-Rates, Ingolf Harden, Hagen Neugebauer, Anastasios Papadopoulos, 
  Christoph Riplinger, Bernardo de Souza, Georgi L. Stoychev                                                    
                                                                 
  APM, various basis sets, CI-OPT, improved COSX, DLPNO-Multilevel,           
  DOCKER, DRACO, updates on ESD, Fragmentator, GOAT, IRC, LR-CPCM, L-BFGS, MBIS, meta-GGA TD-DFT gradient, ML-optimized integration grids, 
  MM, NACMEs, nearIR, NEB, NEB-TS, NL-DFT gradient (VV10), 2- and 3-layer-ONIOM, interface openCOSMO-RS, QMMM,   
  Crystal-QMMM, RESP, rigid body optimization, SF, symmetry and pop. for TD-DFT, various functionals, SOLVATOR                                   
                                                                         
[Other institutions]                                                     
  V. Asgeirsson          : NEB                                           
  Christoph Bannwarth    : sTDA-DFT, sTD-DFT, PBEh-3c, B97-3c, D3        
  Giovanni Bistoni       : ETS/NOCV, ADLD/ADEX, COVALED                  
  Martin Brehm           : Molecular dynamics                            
  Ronald Cardenas        : ETS/NOCV                                      
  Martina Colucci        : COVALED                                       
  Sebastian Ehlert       : rSCAN, r2SCAN, r2SCAN-3c, D4, dhf basis sets  
  Marvin Friede          : D4 for Fr, Ra, Ac-Lr                          
  Lars Goerigk           : TD-DFT with DH, B97 family of functionals     
  Stefan Grimme          : VdW corrections, initial TS optimization, DFT functionals, gCP, sTDA/sTD-DF 
  Waldemar Hujo          : DFT-NL                                        
  H. Jonsson             : NEB                                           
  Holger Kruse           : gCP                                           
  Marcel Mueller         : wB97X-3c, vDZP basis set                      
  Hagen Neugebauer       : wr2SCAN, Native XTB                           
  Gianluca Regni         : ADLD/ADEX                                     
  Tobias Risthaus        : pre 6.0 range-separated hybrid DFT and stability analysis
  Lukas Wittmann         : regularized MP2, r2SCAN double-hybrids, wr2SCAN        
                                                                         
We gratefully acknowledge several colleagues who have allowed us to      
interface, adapt or use parts of their codes:                            
  Ed Valeev, F. Pavosevic, A. Kumar             : LibInt (2-el integral package), F12 methods 
  Garnet Chan, S. Sharma, J. Yang, R. Olivares  : DMRG                   
  Ulf Ekstrom                                   : XCFun DFT Library      
  Mihaly Kallay                                 : mrcc  (arbitrary order and MRCC methods)
  Frank Weinhold                                : gennbo (NPA and NBO analysis)           
  Simon Mueller                                 : openCOSMO-RS                            
  Christopher J. Cramer and Donald G. Truhlar   : smd solvation model                     
  S Lehtola, MJT Oliveira, MAL Marques          : LibXC Library                           
  Liviu Ungur et al                             : ANISO software                          


 Your calculation uses the libint2 library for the computation of 2-el integrals
 For citations please refer to: http://libint.valeyev.net

 Your ORCA version has been built with support for libXC version: 7.0.0
 For citations please refer to: https://libxc.gitlab.io

 This ORCA versions uses:
   CBLAS   interface :  Fast vector & matrix operations
   LAPACKE interface :  Fast linear algebra routines
   SCALAPACK package :  Parallel linear algebra routines
   Shared memory     :  Shared parallel matrices
   BLAS/LAPACK       :  OpenBLAS 0.3.29  USE64BITINT DYNAMIC_ARCH NO_AFFINITY Zen SINGLE_THREADED
        Core in use  :  Zen
   Copyright (c) 2011-2014, The OpenBLAS Project


  ***********************************
  * Starting time: Wed Feb 11 15:26:14 2026
  * Host name:     nid002237
  * Process ID:    40964
  * Working dir.:  /capstor/scratch/cscs/jzhou/MSR/freq/jobs/CH4
  ***********************************



***************************************
The coordinates will be read from file: ../../../xyzfiles/CH4.xyz
***************************************


Your calculation utilizes the atom-pairwise dispersion correction
with the Becke-Johnson damping scheme (D3BJ)


Warning: RI is on but no J-basis has been assigned. Assigning Def2/J (nothing to worry about!)
================================================================================

----- Orbital basis set information -----
Your calculation utilizes the basis: def2-TZVPP
   F. Weigend and R. Ahlrichs, Phys. Chem. Chem. Phys. 7, 3297 (2005).

----- AuxJ basis set information -----
Your calculation utilizes the auxiliary basis: def2/J
   H-Rn: F. Weigend, Phys. Chem. Chem. Phys. 8, 1057 (2006).
   Fr-Lr: K. Eichkorn, F. Weigend, O. Treutler, R. Ahlrichs; Theor. Chem. Acc. 97, 119 (1997).

================================================================================
                                        WARNINGS
                       Please study these warnings very carefully!
================================================================================

WARNING: Old DensityContainer found on disk!
         Will remove this file - 
         If you want to keep old densities, please start your calculation with a different basename. 


================================================================================
                                       INPUT FILE
================================================================================
NAME = orca.in
|  1> ! B3LYP D3BJ def2-TZVPP TightSCF Freq
|  2> 
|  3> * xyzfile 0 1 ../../../xyzfiles/CH4.xyz
|  4> 
|  5>                          ****END OF INPUT****
================================================================================

                       ****************************
                       * Single Point Calculation *
                       ****************************

---------------------------------
CARTESIAN COORDINATES (ANGSTROEM)
---------------------------------
  C      0.000001    0.000008    0.000005
  H     -0.017410   -0.839183   -0.693255
  H      0.089396    0.930243   -0.558338
  H     -0.921845    0.011461    0.578979
  H      0.849849   -0.102612    0.672558

----------------------------
CARTESIAN COORDINATES (A.U.)
----------------------------
  NO LB      ZA    FRAG     MASS         X           Y           Z
   0 C     6.0000    0    12.011    0.000001    0.000014    0.000009
   1 H     1.0000    0     1.008   -0.032899   -1.585826   -1.310061
   2 H     1.0000    0     1.008    0.168935    1.757905   -1.055107
   3 H     1.0000    0     1.008   -1.742034    0.021658    1.094112
   4 H     1.0000    0     1.008    1.605982   -0.193909    1.270951

--------------------------------
INTERNAL COORDINATES (ANGSTROEM)
--------------------------------
 C      0   0   0     0.000000000000     0.00000000     0.00000000
 H      1   0   0     1.088646896747     0.00000000     0.00000000
 H      1   2   0     1.088612312026   109.47565918     0.00000000
 H      1   2   3     1.088642302235   109.46571189   119.99836846
 H      1   2   3     1.088623760948   109.46560718   240.00236842

---------------------------
INTERNAL COORDINATES (A.U.)
---------------------------
 C      0   0   0     0.000000000000     0.00000000     0.00000000
 H      1   0   0     2.057244491396     0.00000000     0.00000000
 H      1   2   0     2.057179135744   109.47565918     0.00000000
 H      1   2   3     2.057235809026   109.46571189   119.99836846
 H      1   2   3     2.057200771071   109.46560718   240.00236842

---------------------
BASIS SET INFORMATION
---------------------
There are 2 groups of distinct atoms

 Group   1 Type C   : 11s6p2d1f contracted to 5s3p2d1f pattern {62111/411/11/1}
 Group   2 Type H   : 5s2p1d contracted to 3s2p1d pattern {311/11/1}

Atom   0C    basis set group =>   1
Atom   1H    basis set group =>   2
Atom   2H    basis set group =>   2
Atom   3H    basis set group =>   2
Atom   4H    basis set group =>   2
---------------------------------
AUXILIARY/J BASIS SET INFORMATION
---------------------------------
There are 2 groups of distinct atoms

 Group   1 Type C   : 12s5p4d2f1g contracted to 6s4p3d1f1g pattern {711111/2111/211/2/1}
 Group   2 Type H   : 5s2p1d contracted to 3s1p1d pattern {311/2/1}

Atom   0C    basis set group =>   1
Atom   1H    basis set group =>   2
Atom   2H    basis set group =>   2
Atom   3H    basis set group =>   2
Atom   4H    basis set group =>   2

Checking for AutoStart:
The File: orca.gbw exists
Trying to determine its content:
     ... Fine, the file contains calculation information
     ... Fine, the calculation information was read
     ... Fine, the file contains a basis set
     ... Fine, the basis set was read
     ... Fine, the file contains a geometry
     ... Fine, the geometry was read
     ... Fine, the file contains a set of orbitals
     ... Fine, the orbitals can be read
     => possible old guess file was deleted
     => GBW file was renamed to GES file
     => GES file is set as startup file
     => Guess is set to MORead
     ... now leaving AutoStart

------------------------------------------------------------------------------
                             ORCA STARTUP CALCULATIONS
                           -- RI-GTO INTEGRALS CHOSEN --
------------------------------------------------------------------------------
------------------------------------------------------------------------------
                   ___                                                        
                  /   \      - P O W E R E D   B Y -                         
                 /     \                                                     
                 |  |  |   _    _      __       _____    __    __             
                 |  |  |  | |  | |    /  \     |  _  \  |  |  /  |          
                  \  \/   | |  | |   /    \    | | | |  |  | /  /          
                 / \  \   | |__| |  /  /\  \   | |_| |  |  |/  /          
                |  |  |   |  __  | /  /__\  \  |    /   |      \           
                |  |  |   | |  | | |   __   |  |    \   |  |\   \          
                \     /   | |  | | |  |  |  |  | |\  \  |  | \   \       
                 \___/    |_|  |_| |__|  |__|  |_| \__\ |__|  \__/        
                                                                              
                      - O R C A' S   B I G   F R I E N D -                    
                                      &                                       
                       - I N T E G R A L  F E E D E R -                       
                                                                              
 v1 FN, 2020, v2 2021, v3 2022-2024                                           
------------------------------------------------------------------------------


----------------------
SHARK INTEGRAL PACKAGE
----------------------

Number of atoms                             ...      5
Number of basis functions                   ...     87
Number of shells                            ...     35
Maximum angular momentum                    ...      3
Integral batch strategy                     ... SHARK/LIBINT Hybrid
RI-J (if used) integral strategy            ... SPLIT-RIJ (Revised 2003 algorithm where possible)
Printlevel                                  ...      1
Contraction scheme used                     ... SEGMENTED contraction
Prescreening option                         ... SCHWARTZ
   Thresh                                   ... 2.500e-11
   Tcut                                     ... 2.500e-12
   Tpresel                                  ... 2.500e-12 
Coulomb Range Separation                    ... NOT USED
Exchange Range Separation                   ... NOT USED
Multipole approximations                    ... NOT USED
Finite Nucleus Model                        ... NOT USED
CABS basis                                  ... NOT available
Auxiliary Coulomb fitting basis             ... AVAILABLE
   # of basis functions in Aux-J            ...     93
   # of shells in Aux-J                     ...     35
   Maximum angular momentum in Aux-J        ...      4
Auxiliary J/K fitting basis                 ... NOT available
Auxiliary Correlation fitting basis         ... NOT available
Auxiliary 'external' fitting basis          ... NOT available

Checking pre-screening integrals            ... done (  0.0 sec) Dimension = 35
   => SHARK Basis and OBASIS are compatible. Storing Pre-screening
Shell pair information
Shell pair cut-off parameter TPreSel        ...   2.5e-12
Total number of shell pairs                 ...       630
Shell pairs after pre-screening             ...       630
Total number of primitive shell pairs       ...      1412
Primitive shell pairs kept                  ...      1360
          la=0 lb=0:    153 shell pairs
          la=1 lb=0:    187 shell pairs
          la=1 lb=1:     66 shell pairs
          la=2 lb=0:    102 shell pairs
          la=2 lb=1:     66 shell pairs
          la=2 lb=2:     21 shell pairs
          la=3 lb=0:     17 shell pairs
          la=3 lb=1:     11 shell pairs
          la=3 lb=2:      6 shell pairs
          la=3 lb=3:      1 shell pairs

Checking whether 4 symmetric matrices of dimension 87 fit in memory
:Max Core in MB      =   4096.00
 MB in use           =      3.93
 MB left             =   4092.07
 MB needed           =      0.12
 Data fit in memory  = YES
Calculating RI/J V-Matrix + Cholesky decomp.... done (  0.0 sec)
Calculating Nuclear repulsion               ... done (  0.0 sec) ENN=     13.452280839924 Eh

Diagonalization of the overlap matrix:
Smallest eigenvalue                        ... 5.341e-04
Time for diagonalization                   ...    0.002 sec
Threshold for overlap eigenvalues          ... 1.000e-07
Number of eigenvalues below threshold      ... 0
Time for construction of square roots      ...    0.003 sec
Total time needed                          ...    0.006 sec

-------------------
DFT GRID GENERATION
-------------------

General Integration Accuracy     IntAcc      ... 4.388
Radial Grid Type                 RadialGrid  ... OptM3 with GC (2021)
Angular Grid (max. ang.)         AngularGrid ... 4 (Lebedev-302)
Angular grid pruning method      GridPruning ... 4 (adaptive)
Weight generation scheme         WeightScheme... mBecke (2022)
Basis function cutoff            BFCut       ... 1.0000e-11
Integration weight cutoff        WCut        ... 1.0000e-14
Partially contracted basis set               ... off
Rotationally invariant grid construction     ... off
Angular grids for H and He will be reduced by one unit

Total number of grid points                  ...    19249
Total number of batches                      ...      303
Average number of points per batch           ...       63
Average number of grid points per atom       ...     3850

--------------------
COSX GRID GENERATION
--------------------

GRIDX 1
-------
General Integration Accuracy     IntAcc      ... 3.816
Radial Grid Type                 RadialGrid  ... OptM3 with GC (2021)
Angular Grid (max. ang.)         AngularGrid ... 1 (Lebedev-50)
Angular grid pruning method      GridPruning ... 4 (adaptive)
Weight generation scheme         WeightScheme... mBecke (2022)
Basis function cutoff            BFCut       ... 1.0000e-11
Integration weight cutoff        WCut        ... 1.0000e-14
Partially contracted basis set               ... on
Rotationally invariant grid construction     ... off
Angular grids for H and He will be reduced by one unit

Total number of grid points                  ...     2509
Total number of batches                      ...       22
Average number of points per batch           ...      114
Average number of grid points per atom       ...      502
UseSFitting                                  ... on

GRIDX 2
-------
General Integration Accuracy     IntAcc      ... 4.020
Radial Grid Type                 RadialGrid  ... OptM3 with GC (2021)
Angular Grid (max. ang.)         AngularGrid ... 2 (Lebedev-110)
Angular grid pruning method      GridPruning ... 4 (adaptive)
Weight generation scheme         WeightScheme... mBecke (2022)
Basis function cutoff            BFCut       ... 1.0000e-11
Integration weight cutoff        WCut        ... 1.0000e-14
Partially contracted basis set               ... on
Rotationally invariant grid construction     ... off
Angular grids for H and He will be reduced by one unit

Total number of grid points                  ...     5059
Total number of batches                      ...       43
Average number of points per batch           ...      117
Average number of grid points per atom       ...     1012
UseSFitting                                  ... on

GRIDX 3
-------
General Integration Accuracy     IntAcc      ... 4.338
Radial Grid Type                 RadialGrid  ... OptM3 with GC (2021)
Angular Grid (max. ang.)         AngularGrid ... 3 (Lebedev-194)
Angular grid pruning method      GridPruning ... 4 (adaptive)
Weight generation scheme         WeightScheme... mBecke (2022)
Basis function cutoff            BFCut       ... 1.0000e-11
Integration weight cutoff        WCut        ... 1.0000e-14
Partially contracted basis set               ... on
Rotationally invariant grid construction     ... off
Angular grids for H and He will be reduced by one unit

Total number of grid points                  ...    11155
Total number of batches                      ...       90
Average number of points per batch           ...      123
Average number of grid points per atom       ...     2231
UseSFitting                                  ... on
Grids setup in   0.3 sec
Initializing property integral containers    ... done (  0.0 sec)

SHARK setup successfully completed in   0.4 seconds

Maximum memory used throughout the entire STARTUP-calculation: 13.8 MB
-------------------------------------------------------------------------------
                                 ORCA GUESS
                   Start orbitals & Density for SCF / CASSCF
-------------------------------------------------------------------------------

------------
SCF SETTINGS
------------
Hamiltonian:
 Density Functional     Method          .... DFT(GTOs)
 Exchange Functional    Exchange        .... B88
   X-Alpha parameter    XAlpha          ....  0.666667
   Becke's b parameter  XBeta           ....  0.004200
 Correlation Functional Correlation     .... LYP
 LDA part of GGA corr.  LDAOpt          .... VWN-5
 Gradients option       PostSCFGGA      .... off
 Hybrid DFT is turned on
   Fraction HF Exchange ScalHFX         ....  0.200000
   Scaling of DF-GGA-X  ScalDFX         ....  0.720000
   Scaling of DF-GGA-C  ScalDFC         ....  0.810000
   Scaling of DF-LDA-C  ScalLDAC        ....  1.000000
   Perturbative correction              ....  0.000000
   NL short-range parameter             ....  4.800000
 RI-approximation to the Coulomb term is turned on
   Number of AuxJ basis functions       .... 93
   RIJ-COSX (HFX calculated with COS-X)).... on


General Settings:
 Integral files         IntName         .... orca
 Hartree-Fock type      HFTyp           .... RHF
 Total Charge           Charge          ....    0
 Multiplicity           Mult            ....    1
 Number of Electrons    NEL             ....   10
 Basis Dimension        Dim             ....   87
 Nuclear Repulsion      ENuc            ....     13.4522808399 Eh

Convergence Acceleration:
 AO-DIIS                CNVDIIS         .... on
   Start iteration      DIISMaxIt       ....    12
   Startup error        DIISStart       ....  0.200000
   # of expansion vecs  DIISMaxEq       ....     5
   Bias factor          DIISBfac        ....   1.050
   Max. coefficient     DIISMaxC        ....  10.000
 MO-DIIS                CNVKDIIS        .... off
 Trust-Rad. Augm. Hess. CNVTRAH         .... auto
   Auto Start mean grad. ratio tolernc. ....  1.125000
   Auto Start start iteration           ....     1
   Auto Start num. interpolation iter.  ....    10
   Max. Number of Micro iterations      ....    24
   Max. Number of Macro iterations      .... Maxiter - #DIIS iter
   Number of Davidson start vectors     ....     2
   Converg. threshold    (grad. norm)   ....   1.000e-05
   Grad. Scal. Fac. for Micro threshold ....   0.100
   Minimum threshold for Micro iter.    ....   1.000e-02
   NR start threshold (gradient norm)   ....   1.000e-04
   Initial trust radius                 ....   0.400
   Minimum AH scaling param. (alpha)    ....   1.000
   Maximum AH scaling param. (alpha)    .... 1000.000
   Quad. conv. algorithm                .... NR
   White noise on init. David. guess    .... on
   Maximum white noise                  ....   0.010
   Pseudo random numbers                .... off
   Inactive MOs                         .... canonical
   Orbital update algorithm             .... Taylor
   Preconditioner                       .... Diag
   Full preconditioner red. dimension   ....   250
 SOSCF                 CNVSOSCF           .... on
   Start iteration     SOSCFMaxIt         ....   150
   Startup grad/error  SOSCFStart         ....  0.003300
   Hessian update      SOSCFHessUp        .... L-BFGS
   Autom. constraints  SOSCFAutoConstrain .... off
 Level Shifting         CNVShift        .... on
   Level shift para.    LevelShift      ....    0.2500
   Turn off err/grad.   ShiftErr        ....    0.0010
 Zerner damping         CNVZerner       .... off
 Static damping         CNVDamp         .... on
   Fraction old density DampFac         ....    0.7000
   Max. Damping (<1)    DampMax         ....    0.9800
   Min. Damping (>=0)   DampMin         ....    0.0000
   Turn off err/grad.   DampErr         ....    0.1000

SCF Procedure:
 Maximum # iterations   MaxIter         ....   125
 SCF integral mode      SCFMode         .... Direct
   Integral package                     .... SHARK and LIBINT hybrid scheme
 Reset frequency        DirectResetFreq ....    20
 Integral Threshold     Thresh          ....  2.500e-11 Eh
 Primitive CutOff       TCut            ....  2.500e-12 Eh

Convergence Tolerance:
 Convergence Check Mode ConvCheckMode   .... Total+1el-Energy
 Convergence forced     ConvForced      .... 0
 Energy Change          TolE            ....  1.000e-08 Eh
 1-El. energy change                    ....  1.000e-05 Eh
 Orbital Gradient       TolG            ....  1.000e-05
 Orbital Rotation angle TolX            ....  1.000e-05
 DIIS Error             TolErr          ....  5.000e-07

---------------------
INITIAL GUESS: MOREAD
---------------------
Guess MOs are being read from file: orca.ges
Input Geometry matches current geometry (good)
Input basis set matches current basis set (good)
Occupation numbers will be reassigned to an Aufbau configuration
MOs were renormalized
MOs were reorthogonalized (Cholesky)
                      ------------------
                      INITIAL GUESS DONE (   0.0 sec)
                      ------------------
             **** ENERGY FILE WAS UPDATED (orca.en.tmp) ****
Finished Guess after   0.1 sec
Maximum memory used throughout the entire GUESS-calculation: 8.2 MB

-------------------------------------------------------------------------------------------
                                      ORCA LEAN-SCF
                              memory conserving SCF solver
-------------------------------------------------------------------------------------------

----------------------------------------D-I-I-S--------------------------------------------
Iteration    Energy (Eh)           Delta-E    RMSDP     MaxDP     DIISErr   Damp  Time(sec)
-------------------------------------------------------------------------------------------
               ***  Starting incremental Fock matrix formation  ***
                              *** Initializing SOSCF ***
---------------------------------------S-O-S-C-F--------------------------------------
Iteration    Energy (Eh)           Delta-E    RMSDP     MaxDP     MaxGrad    Time(sec)
--------------------------------------------------------------------------------------
    1    -40.5032861641628230     0.00e+00  6.21e-09  7.60e-08  1.16e-08     0.8
               *** Restarting incremental Fock matrix formation ***
    2    -40.5032861641635762    -7.53e-13  3.20e-09  3.66e-08  1.41e-08     0.8
                  *** Gradient check signals convergence ***

               *****************************************************
               *                     SUCCESS                       *
               *           SCF CONVERGED AFTER   2 CYCLES          *
               *****************************************************

Recomputing exchange energy using gridx3       ... done (    1.029 sec)
Old exchange energy                            :     -1.316367479 Eh
New exchange energy                            :     -1.316361662 Eh
Exchange energy change after final integration :      0.000005817 Eh
Total energy after final integration           :    -40.503280345 Eh
             **** ENERGY FILE WAS UPDATED (orca.en.tmp) ****

----------------
TOTAL SCF ENERGY
----------------

Total Energy       :        -40.50328034518384 Eh           -1102.15029 eV

Components:
Nuclear Repulsion  :         13.45228083992434 Eh             366.05517 eV
Electronic Energy  :        -53.95556700179432 Eh           -1468.20562 eV
One Electron Energy:        -79.87791783021757 Eh           -2173.58865 eV
Two Electron Energy:         25.92235082842325 Eh             705.38303 eV

Virial components:
Potential Energy   :        -80.76228107552492 Eh           -2197.65339 eV
Kinetic Energy     :         40.25900073034109 Eh            1095.50310 eV
Virial Ratio       :          2.00606770189054

DFT components:
N(Alpha)           :        5.000000223838 electrons
N(Beta)            :        5.000000223838 electrons
N(Total)           :       10.000000447676 electrons
E(X)               :       -5.209710142329 Eh       
E(C)               :       -0.351451514085 Eh       
E(XC)              :       -5.561161656414 Eh       

---------------
SCF CONVERGENCE
---------------

  Last Energy change         ...    7.5318e-13  Tolerance :   1.0000e-08
  Last MAX-Density change    ...    3.6573e-08  Tolerance :   1.0000e-07
  Last RMS-Density change    ...    3.1978e-09  Tolerance :   5.0000e-09
  Last DIIS Error            ...    1.1578e-07  Tolerance :   5.0000e-07
  Last Orbital Gradient      ...    1.4129e-08  Tolerance :   1.0000e-05
  Last Orbital Rotation      ...    2.7240e-08  Tolerance :   1.0000e-05


----------------
ORBITAL ENERGIES
----------------

  NO   OCC          E(Eh)            E(eV) 
   0   2.0000     -10.150283      -276.2032 
   1   2.0000      -0.693301       -18.8657 
   2   2.0000      -0.392177       -10.6717 
   3   2.0000      -0.392173       -10.6716 
   4   2.0000      -0.392129       -10.6704 
   5   0.0000       0.051100         1.3905 
   6   0.0000       0.126551         3.4436 
   7   0.0000       0.126566         3.4440 
   8   0.0000       0.126568         3.4441 
   9   0.0000       0.199412         5.4263 
  10   0.0000       0.199419         5.4265 
  11   0.0000       0.199436         5.4269 
  12   0.0000       0.391878        10.6635 
  13   0.0000       0.465099        12.6560 
  14   0.0000       0.465128        12.6568 
  15   0.0000       0.465130        12.6568 
*Only the first 10 virtual orbitals were printed.

                    ********************************
                    * MULLIKEN POPULATION ANALYSIS *
                    ********************************

-----------------------
MULLIKEN ATOMIC CHARGES
-----------------------
   0 C :   -0.406418
   1 H :    0.101619
   2 H :    0.101594
   3 H :    0.101565
   4 H :    0.101640
Sum of atomic charges:    0.0000000

--------------------------------
MULLIKEN REDUCED ORBITAL CHARGES
--------------------------------
  0 C s       :     3.229800  s :     3.229800
      pz      :     1.046055  p :     3.138374
      px      :     1.046154
      py      :     1.046165
      dz2     :     0.000310  d :     0.036718
      dxz     :     0.012041
      dyz     :     0.012020
      dx2y2   :     0.012056
      dxy     :     0.000291
      f0      :     0.000141  f :     0.001526
      f+1     :     0.000061
      f-1     :     0.000074
      f+2     :     0.001037
      f-2     :     0.000021
      f+3     :     0.000097
      f-3     :     0.000097

  1 H s       :     0.864628  s :     0.864628
      pz      :     0.010878  p :     0.032288
      px      :     0.010223
      py      :     0.011187
      dz2     :     0.000469  d :     0.001465
      dxz     :     0.000350
      dyz     :     0.000054
      dx2y2   :     0.000220
      dxy     :     0.000372

  2 H s       :     0.864633  s :     0.864633
      pz      :     0.010654  p :     0.032307
      px      :     0.010233
      py      :     0.011421
      dz2     :     0.000363  d :     0.001466
      dxz     :     0.000242
      dyz     :     0.000200
      dx2y2   :     0.000197
      dxy     :     0.000464

  3 H s       :     0.864670  s :     0.864670
      pz      :     0.010682  p :     0.032299
      px      :     0.011395
      py      :     0.010222
      dz2     :     0.000383  d :     0.001466
      dxz     :     0.000172
      dyz     :     0.000257
      dx2y2   :     0.000189
      dxy     :     0.000464

  4 H s       :     0.864603  s :     0.864603
      pz      :     0.010842  p :     0.032292
      px      :     0.011215
      py      :     0.010236
      dz2     :     0.000458  d :     0.001465
      dxz     :     0.000074
      dyz     :     0.000328
      dx2y2   :     0.000232
      dxy     :     0.000373



                     *******************************
                     * LOEWDIN POPULATION ANALYSIS *
                     *******************************

----------------------
LOEWDIN ATOMIC CHARGES
----------------------
   0 C :   -0.007999
   1 H :    0.002010
   2 H :    0.001988
   3 H :    0.002002
   4 H :    0.001999

-------------------------------
LOEWDIN REDUCED ORBITAL CHARGES
-------------------------------
  0 C s       :     2.721504  s :     2.721504
      pz      :     1.032287  p :     3.096851
      px      :     1.032279
      py      :     1.032285
      dz2     :     0.001443  d :     0.170628
      dxz     :     0.055958
      dyz     :     0.055853
      dx2y2   :     0.056021
      dxy     :     0.001353
      f0      :     0.004361  f :     0.019016
      f+1     :     0.001722
      f-1     :     0.001841
      f+2     :     0.005240
      f-2     :     0.000223
      f+3     :     0.002816
      f-3     :     0.002813

  1 H s       :     0.820879  s :     0.820879
      pz      :     0.051246  p :     0.148120
      px      :     0.040746
      py      :     0.056127
      dz2     :     0.006650  d :     0.028991
      dxz     :     0.004345
      dyz     :     0.007511
      dx2y2   :     0.005222
      dxy     :     0.005264

  2 H s       :     0.820888  s :     0.820888
      pz      :     0.047559  p :     0.148130
      px      :     0.040916
      py      :     0.059655
      dz2     :     0.005245  d :     0.028994
      dxz     :     0.002983
      dyz     :     0.007996
      dx2y2   :     0.006152
      dxy     :     0.006619

  3 H s       :     0.820890  s :     0.820890
      pz      :     0.048067  p :     0.148117
      px      :     0.059309
      py      :     0.040741
      dz2     :     0.005460  d :     0.028991
      dxz     :     0.007942
      dyz     :     0.003130
      dx2y2   :     0.005982
      dxy     :     0.006477

  4 H s       :     0.820883  s :     0.820883
      pz      :     0.050630  p :     0.148125
      px      :     0.056523
      py      :     0.040971
      dz2     :     0.006439  d :     0.028993
      dxz     :     0.007522
      dyz     :     0.004156
      dx2y2   :     0.005436
      dxy     :     0.005441



                      *****************************
                      * MAYER POPULATION ANALYSIS *
                      *****************************

  NA   - Mulliken gross atomic population
  ZA   - Total nuclear charge
  QA   - Mulliken gross atomic charge
  VA   - Mayer's total valence
  BVA  - Mayer's bonded valence
  FA   - Mayer's free valence

  ATOM       NA         ZA         QA         VA         BVA        FA
  0 C      6.4064     6.0000    -0.4064     3.9205     3.9205     0.0000
  1 H      0.8984     1.0000     0.1016     0.9938     0.9938     0.0000
  2 H      0.8984     1.0000     0.1016     0.9939     0.9939    -0.0000
  3 H      0.8984     1.0000     0.1016     0.9939     0.9939    -0.0000
  4 H      0.8984     1.0000     0.1016     0.9939     0.9939     0.0000

  Mayer bond orders larger than 0.100000
B(  0-C ,  1-H ) :   0.9801 B(  0-C ,  2-H ) :   0.9801 B(  0-C ,  3-H ) :   0.9801 
B(  0-C ,  4-H ) :   0.9801 

-------
TIMINGS
-------

Total SCF time: 0 days 0 hours 0 min 3 sec 

Total time                  ....       3.304 sec
Sum of individual times     ....       2.782 sec  ( 84.2%)

SCF preparation             ....       0.118 sec  (  3.6%)
Fock matrix formation       ....       2.611 sec  ( 79.0%)
  Startup                   ....       0.009 sec  (  0.4% of F)
  Split-RI-J                ....       0.086 sec  (  3.3% of F)
  Chain of spheres X        ....       2.275 sec  ( 87.1% of F)
  XC integration            ....       0.666 sec  ( 25.5% of F)
    XC Preparation          ....       0.000 sec  (  0.0% of XC)
    Basis function eval.    ....       0.183 sec  ( 27.4% of XC)
    Density eval.           ....       0.108 sec  ( 16.2% of XC)
    XC-Functional eval.     ....       0.045 sec  (  6.8% of XC)
    XC-Potential eval.      ....       0.148 sec  ( 22.2% of XC)
Diagonalization             ....       0.000 sec  (  0.0%)
Density matrix formation    ....       0.007 sec  (  0.2%)
Total Energy calculation    ....       0.003 sec  (  0.1%)
Population analysis         ....       0.010 sec  (  0.3%)
Orbital Transformation      ....       0.007 sec  (  0.2%)
Orbital Orthonormalization  ....       0.000 sec  (  0.0%)
DIIS solution               ....       0.009 sec  (  0.3%)
SOSCF solution              ....       0.018 sec  (  0.5%)
Finished LeanSCF after   3.3 sec

Maximum memory used throughout the entire LEANSCF-calculation: 8.1 MB

------------------------------------------------------------------------------
                         ORCA PROPERTY INTEGRAL CALCULATIONS
------------------------------------------------------------------------------

GBWName                                   ... orca.gbw
Number of atoms                           ...      5
Number of basis functions                 ...     87
Max core memory                           ...   4096 MB

Dipole integrals                          ... YES
Quadrupole integrals                      ...  NO
Linear momentum integrals                 ...  NO
Angular momentum integrals                ...  NO
Higher moments length integrals           ...  NO
Higher moments velocity integrals         ...  NO
Kinetic energy integrals                  ...  NO
GIAO right hand sides                     ...  NO
GIAO dipole derivative integrals          ...  NO
SOC integrals                             ...  NO
EPR diamagnetic integrals (GIAO)          ...  NO
EPR gauge integrals                       ...  NO
Field gradient integrals                  ...  NO (   0 nuclei)
Spin-dipole/Fermi contact integrals       ...  NO (   0 nuclei)
Contact density integrals                 ...  NO (   0 nuclei)
Nucleus-orbit integrals                   ...  NO (   0 nuclei)
Geometric perturbations                   ... YES (   5 nuclei)

Choice of electric origin   ... Center of mass
Position of electric origin ... ( -0.0000,  0.0000,  0.0000) 
Choice of magnetic origin   ... GIAO
Position of magnetic origin ... (  0.0000,  0.0000,  0.0000) 

Calculating integrals                     ... Electric Dipole (Length)     done (  0.0 sec)
Calculating integrals                     ... Geometrical perturbation right hand sides

-----------------------
GEOMETRIC PERTURBATIONS (5 nuclei)
-----------------------

MaxCore                            ...   4096 MB
Number of batches                  ...      1

BATCH   0: Atoms    0 -    4 ( 15 perturbations)
   => H(core) and overlap derivative integrals     ... done (     0.0 sec)
   => Making and storing internal U-coefficients   ... done (     0.0 sec)
   => RI-J derivative integrals                    ... done (     0.3 sec)
   => RI-J response operators                      ... done (     0.1 sec)
   => Chain of spheres derivative integrals        ... done (     2.2 sec)
   => Chain of spheres response operator           ... done (     1.3 sec)
   => XC derivative integrals                      ... done (     8.3 sec)
   => XC response operators                        ... done (     1.7 sec)
   => Completing and storing right hand sides      ... done (     0.0 sec)
   => Total time for right hand sides =  14.2 sec

  geometrical perturbations done ( 14.2 sec)

Property integrals calculated in  14.2 sec

Maximum memory used throughout the entire PROPINT-calculation: 16.7 MB


-------------------------------------------------------------------------------
                          DFT DISPERSION CORRECTION                            
                                                                               
                              DFTD3 V3.1  Rev 1                                
                          USING Becke-Johnson damping                          
-------------------------------------------------------------------------------
The B3LYP functional is recognized
Active option DFTDOPT                   ...         4   

molecular C6(AA) [au] = 127.653983 


            DFT-D V3
 parameters
 s6 scaling factor         :     1.0000 
 a1 scaling factor         :     0.3981 
 s8 scaling factor         :     1.9889 
 a2 scaling factor         :     4.4211 
 ad hoc parameters k1-k3   :    16.0000     1.3333    -4.0000 

 Edisp/kcal,au: -1.200778942620  -0.001913562845 
 E6   /kcal   :  -0.642125603 
 E8   /kcal   :  -0.558653339 
 % E8         :  46.524245184 

-------------------------   ----------------
Dispersion correction           -0.001913563
-------------------------   ----------------


-------------------------   --------------------
FINAL SINGLE POINT ENERGY       -40.505193908029
-------------------------   --------------------

------------------------------------------------------------------------------
                            ORCA SCF RESPONSE CALCULATION
------------------------------------------------------------------------------

GBWName                                 ... orca.gbw
Number of atoms                         ...      5
Number of basis functions               ...     87
Max core memory                         ...   4096 MB

Electric field perturbation             ...  NO
Quadrupolar field perturbation          ...  NO
Magnetic field perturbation (no GIAO)   ...  NO
Magnetic field perturbation (with GIAO) ...  NO
Linear momentum (velocity) perturbation ...  NO
Spin-orbit coupling perturbation        ...  NO
Choice of electric origin               ... Center of mass
Position of electric origin             ...    -0.000000     0.000000     0.000000
Choice of magnetic origin               ... GIAO
Position of magnetic origin             ...     0.000000     0.000000     0.000000
Nuclear geometric perturbations         ... YES (  15 perturbations)
Nucleus-orbit perturbations             ...  NO (   0 perturbations)
Spin-dipole/Fermi contact perturbations ...  NO (   0 perturbations)

Total number of real perturbations      ...     15
Total number of imaginary perturbations ...      0
Total number of triplet perturbations   ...      0
Total number of SOC perturbations       ...      0


                                **********************
                                * REAL PERTURBATIONS *
                                **********************



-------------------
SHARK CP-SCF DRIVER
-------------------

Dimension of the orbital basis          ...     87
Dimension of the CPSCF-problem          ...    410
Number of operators                     ...      1
Max. number of iterations               ...    128
Convergence Tolerance                   ... 1.0e-04
Number of perturbations                 ...     15
Perturbation type                       ... REAL

----------------------------
POPLE LINEAR EQUATION SOLVER
----------------------------

  ITERATION   0:   ||err||_max =   1.0324e-01 (   0.9 sec   0/ 15 done)
  ITERATION   1:   ||err||_max =   1.1801e-02 (   1.0 sec   0/ 15 done)
  ITERATION   2:   ||err||_max =   2.4807e-03 (   1.0 sec   0/ 15 done)
  ITERATION   3:   ||err||_max =   1.6333e-04 (   1.1 sec   7/ 15 done)
  ITERATION   4:   ||err||_max =   1.0338e-05 (   0.7 sec  15/ 15 done)

CP-SCF equations solved in   4.8 sec
Response densities calculated in   0.0 sec

Maximum memory used throughout the entire SCFRESP-calculation: 14.2 MB

------------------------------------------------------------------------------
                              ORCA PROPERTY CALCULATIONS
------------------------------------------------------------------------------

GBWName                                 ... orca.gbw
Number of atoms                         ...      5
Number of basis functions               ...     87
Max core memory                         ...   4096 MB

Electric properties:
Dipole moment                           ... YES
Quadrupole moment                       ...  NO
Static polarizability (Dipole/Dipole)   ...  NO
Static polarizability (Dipole/Quad.)    ...  NO
Static polarizability (Quad./Quad.)     ...  NO
Static polarizability (Velocity)        ...  NO
Static hyperpolarizability              ...  NO

Atomic electric properties:
Dipole moment                           ...  NO
Quadrupole moment                       ...  NO
Static polarizability                   ...  NO

Choice of electric origin               ... Center of mass
Position of electric origin             ...    -0.000000     0.000000     0.000000

General magnetic properties:
Magnetizability                         ...  NO

EPR properties:
g-Tensor (aka g-matrix)                 ...  NO
Zero-Field splitting spin-orbit         ...  NO
Zero-field splitting spin-spin          ...  NO
Hyperfine couplings                     ...  NO (   0 nuclei)
Quadrupole couplings                    ...  NO (   0 nuclei)
Contact density                         ...  NO (   0 nuclei)

NMR properties:
Chemical shifts                         ...  NO (   0 nuclei)
Spin-rotation constants                 ...  NO (   0 nuclei)
Spin-spin couplings                     ...  NO (   0 nuclei,    0 pairs)

Choice of magnetic origin               ... GIAO
Position of magnetic origin             ...     0.000000     0.000000     0.000000

Properties with geometric perturbations:
SCF Hessian                             ... YES
IR spectrum                             ... YES
VCD spectrum                            ...  NO
X-ray spectroscopy properties:
SCF XES/XAS/RIXS spectra                ...  NO

SCF SOC stabilization energy            ...  NO
Diagonal Born-Oppenheimer correction    ...  NO

-------------
DIPOLE MOMENT
-------------

Method             : SCF
Type of density    : Electron Density
Multiplicity       :   1
Irrep              :   0
Energy             :   -40.5032803451838390 Eh
Basis              : AO
                                X                 Y                 Z
Electronic contribution:      0.000013011       0.000119106       0.000049940
Nuclear contribution   :     -0.000008344      -0.000084979      -0.000051899
                        -----------------------------------------
Total Dipole Moment    :      0.000004666       0.000034127      -0.000001959
                        -----------------------------------------
Magnitude (a.u.)       :      0.000034500
Magnitude (Debye)      :      0.000087693



--------------------
Rotational spectrum 
--------------------
 
Rotational constants in cm-1:             5.292126             5.291966             5.291388 
Rotational constants in MHz :        158653.944464        158649.150580        158631.824086 

Dipole components along the rotational axes: 
x,y,z [a.u.] :     0.000005    -0.000034    -0.000002 
x,y,z [Debye]:     0.000012    -0.000087    -0.000005 

 

Dipole moment calculation done in   0.0 sec 

-----------
SCF HESSIAN
-----------

Occupied/Occupied contributions to the Hessian:
   => Occupied/Occupied contributions              ... done (  0.0 sec)
Perturbed density contributions to the Hessian:
   => Perturbed density contributions              ... done (  0.0 sec)
Explicit contributions to the Hessian:
   => Nuclear repulsion Hessian                    ... done (  0.0 sec)
   => HCore and overlap Hessian                    ... done (  0.4 sec)
   => RI-J Hessian                                 ... done (  0.9 sec)
   => COSX Hessian                                 ... done ( 66.1 sec)
   => XC-Hessian                                   ... done (  5.4 sec)
   => Van der Waals-Hessian                        ... done (  1.6 sec)
   => Explicit contributions done
Dipole derivatives                                 ... done (  0.0 sec)
Mass weighting the Hessian           ... done
Calculating normal modes             ... done
Scaling frequencies                  ... done

-----------------------
VIBRATIONAL FREQUENCIES
-----------------------

Scaling factor for frequencies =  1.000000000  (already applied!)

     0:       0.00 cm**-1
     1:       0.00 cm**-1
     2:       0.00 cm**-1
     3:       0.00 cm**-1
     4:       0.00 cm**-1
     5:       0.00 cm**-1
     6:    1340.40 cm**-1
     7:    1340.57 cm**-1
     8:    1340.65 cm**-1
     9:    1557.35 cm**-1
    10:    1557.45 cm**-1
    11:    3029.19 cm**-1
    12:    3131.50 cm**-1
    13:    3131.75 cm**-1
    14:    3131.78 cm**-1


------------
NORMAL MODES
------------

These modes are the Cartesian displacements weighted by the diagonal matrix
M(i,i)=1/sqrt(m[i]) where m[i] is the mass of the displaced atom
Thus, these vectors are normalized but *not* orthogonal

                  0          1          2          3          4          5    
      0       0.000000   0.000000   0.000000   0.000000   0.000000   0.000000
      1       0.000000   0.000000   0.000000   0.000000   0.000000   0.000000
      2       0.000000   0.000000   0.000000   0.000000   0.000000   0.000000
      3       0.000000   0.000000   0.000000   0.000000   0.000000   0.000000
      4       0.000000   0.000000   0.000000   0.000000   0.000000   0.000000
      5       0.000000   0.000000   0.000000   0.000000   0.000000   0.000000
      6       0.000000   0.000000   0.000000   0.000000   0.000000   0.000000
      7       0.000000   0.000000   0.000000   0.000000   0.000000   0.000000
      8       0.000000   0.000000   0.000000   0.000000   0.000000   0.000000
      9       0.000000   0.000000   0.000000   0.000000   0.000000   0.000000
     10       0.000000   0.000000   0.000000   0.000000   0.000000   0.000000
     11       0.000000   0.000000   0.000000   0.000000   0.000000   0.000000
     12       0.000000   0.000000   0.000000   0.000000   0.000000   0.000000
     13       0.000000   0.000000   0.000000   0.000000   0.000000   0.000000
     14       0.000000   0.000000   0.000000   0.000000   0.000000   0.000000
                  6          7          8          9         10         11    
      0      -0.016639   0.021185  -0.122102   0.000007   0.000013  -0.000069
      1       0.010781  -0.122487  -0.022720  -0.000001  -0.000039  -0.000064
      2       0.123467   0.013548  -0.014474   0.000026  -0.000000   0.000010
      3       0.088145  -0.109773   0.587347  -0.244183  -0.436375   0.007969
      4       0.319137   0.225738  -0.013095   0.281013  -0.150070   0.385692
      5      -0.289641  -0.367965  -0.031622  -0.333978   0.192571   0.318658
      6       0.055017  -0.152711   0.580013   0.282892   0.410087  -0.041037
      7      -0.315528   0.069924   0.005158  -0.231900   0.117146  -0.426731
      8      -0.438257   0.247660   0.132703  -0.340975   0.260909   0.256152
      9      -0.295534  -0.045725   0.140707   0.202510  -0.172334   0.423916
     10      -0.047323   0.591299   0.115324  -0.317498  -0.386004  -0.005278
     11      -0.360510  -0.100927   0.352136   0.328716  -0.266789  -0.266274
     12       0.350640   0.055774   0.146856  -0.241303   0.198469  -0.390028
     13      -0.084745   0.572552   0.163343   0.268393   0.419390   0.047086
     14      -0.382782   0.059797  -0.280750   0.345924  -0.186686  -0.308649
                 12         13         14    
      0      -0.029174  -0.086934   0.006457
      1       0.016722  -0.012264  -0.089551
      2       0.085542  -0.027244   0.019709
      3      -0.016695  -0.014760   0.010059
      4      -0.491355   0.205551   0.397056
      5      -0.390165   0.166054   0.348606
      6       0.018813  -0.016229   0.069330
      7       0.266064   0.027557   0.686625
      8      -0.138693  -0.024162  -0.419614
      9       0.565386   0.459836   0.034202
     10      -0.003435  -0.008635  -0.020122
     11      -0.340315  -0.306789  -0.016254
     12      -0.219875   0.607027  -0.190528
     13       0.029468  -0.078344   0.003504
     14      -0.150115   0.489527  -0.147584


-----------
IR SPECTRUM
-----------

 Mode   freq       eps      Int      T**2         TX        TY        TZ
       cm**-1   L/(mol*cm) km/mol    a.u.
----------------------------------------------------------------------------
  6:   1340.40   0.002490   12.58  0.000580  ( 0.003217 -0.002060 -0.023773)
  7:   1340.57   0.002492   12.60  0.000580  (-0.004087  0.023593 -0.002623)
  8:   1340.65   0.002489   12.58  0.000579  ( 0.023508  0.004380  0.002767)
  9:   1557.35   0.000000    0.00  0.000000  (-0.000028  0.000029 -0.000020)
 10:   1557.45   0.000000    0.00  0.000000  (-0.000012 -0.000009 -0.000021)
 11:   3029.19   0.000000    0.00  0.000000  (-0.000012 -0.000034  0.000004)
 12:   3131.50   0.004621   23.35  0.000461  (-0.006827  0.003900  0.019967)
 13:   3131.75   0.004622   23.36  0.000461  (-0.020301 -0.002849 -0.006348)
 14:   3131.78   0.004626   23.38  0.000461  ( 0.001496 -0.020917  0.004605)

* The epsilon (eps) is given for a Dirac delta lineshape.
** The dipole moment derivative (T) already includes vibrational overlap.

The first frequency considered to be a vibration is 6
The total number of vibrations considered is 9


--------------------------
THERMOCHEMISTRY AT 298.15K
--------------------------

Temperature         ...   298.15 K
Pressure            ...     1.00 atm
Total Mass          ...    16.04 AMU
Quasi RRHO          ...     True
Cut-Off Frequency   ...     1.00 cm^-1

Throughout the following assumptions are being made:
  (1) The electronic state is orbitally nondegenerate
  (2) There are no thermally accessible electronically excited states
  (3) Hindered rotations indicated by low frequency modes are not
      treated as such but are treated as vibrations and this may
      cause some error
  (4) All equations used are the standard statistical mechanics
      equations for an ideal gas
  (5) All vibrations are strictly harmonic

freq.    1340.40  E(vib)   ...       0.01 
freq.    1340.57  E(vib)   ...       0.01 
freq.    1340.65  E(vib)   ...       0.01 
freq.    1557.35  E(vib)   ...       0.00 
freq.    1557.45  E(vib)   ...       0.00 
freq.    3029.19  E(vib)   ...       0.00 
freq.    3131.50  E(vib)   ...       0.00 
freq.    3131.75  E(vib)   ...       0.00 
freq.    3131.78  E(vib)   ...       0.00 

------------
INNER ENERGY
------------

The inner energy is: U= E(el) + E(ZPE) + E(vib) + E(rot) + E(trans)
    E(el)   - is the total energy from the electronic structure calculation
              = E(kin-el) + E(nuc-el) + E(el-el) + E(nuc-nuc)
    E(ZPE)  - the the zero temperature vibrational energy from the frequency calculation
    E(vib)  - the the finite temperature correction to E(ZPE) due to population
              of excited vibrational states
    E(rot)  - is the rotational thermal energy
    E(trans)- is the translational thermal energy

Summary of contributions to the inner energy U:
Electronic energy                ...    -40.50519391 Eh
Zero point energy                ...      0.04456239 Eh      27.96 kcal/mol
Thermal vibrational correction   ...      0.00003622 Eh       0.02 kcal/mol
Thermal rotational correction    ...      0.00141627 Eh       0.89 kcal/mol
Thermal translational correction ...      0.00141627 Eh       0.89 kcal/mol
-----------------------------------------------------------------------
Total thermal energy                    -40.45776276 Eh


Summary of corrections to the electronic energy:
(perhaps to be used in another calculation)
Total thermal correction                  0.00286876 Eh       1.80 kcal/mol
Non-thermal (ZPE) correction              0.04456239 Eh      27.96 kcal/mol
-----------------------------------------------------------------------
Total correction                          0.04743115 Eh      29.76 kcal/mol


--------
ENTHALPY
--------

The enthalpy is H = U + kB*T
                kB is Boltzmann's constant
Total thermal energy              ...    -40.45776276 Eh 
Thermal Enthalpy correction       ...      0.00094421 Eh       0.59 kcal/mol
-----------------------------------------------------------------------
Total Enthalpy                    ...    -40.45681855 Eh


Note: Rotational entropy computed according to Herzberg 
Infrared and Raman Spectra, Chapter V,1, Van Nostrand Reinhold, 1945 
Point Group:  D2d, Symmetry Number:   4  
Rotational constants in cm-1:     5.292131     5.291971     5.291393 

Vibrational entropy computed according to the QRRHO of S. Grimme
Chem.Eur.J. 2012 18 9955 using a reference frequency of 100.0 cm-1


-------
ENTROPY
-------

The entropy contributions are T*S = T*(S(el)+S(vib)+S(rot)+S(trans))
     S(el)   - electronic entropy
     S(vib)  - vibrational entropy
     S(rot)  - rotational entropy
     S(trans)- translational entropy
The entropies will be listed as multiplied by the temperature to get
units of energy

Electronic entropy                ...      0.00000000 Eh      0.00 kcal/mol
Vibrational entropy               ...      0.00004165 Eh      0.03 kcal/mol
Rotational entropy                ...      0.00584216 Eh      3.67 kcal/mol
Translational entropy             ...      0.01627961 Eh     10.22 kcal/mol
-----------------------------------------------------------------------
Final entropy term                ...      0.02216342 Eh     13.91 kcal/mol

In case the symmetry of your molecule has not been determined correctly
or in case you have a reason to use a different symmetry number we print 
out the resulting rotational entropy values for sn=1,12:

 non-linear molecules -----------------------------------
|  sn= 1 | S(rot)=       0.00715107 Eh      4.49 kcal/mol|
|  sn= 2 | S(rot)=       0.00649661 Eh      4.08 kcal/mol|
|  sn= 3 | S(rot)=       0.00611378 Eh      3.84 kcal/mol|
|  sn= 4 | S(rot)=       0.00584216 Eh      3.67 kcal/mol|
|  sn= 5 | S(rot)=       0.00563147 Eh      3.53 kcal/mol|
|  sn= 6 | S(rot)=       0.00545932 Eh      3.43 kcal/mol|
|  sn= 7 | S(rot)=       0.00531378 Eh      3.33 kcal/mol|
|  sn= 8 | S(rot)=       0.00518770 Eh      3.26 kcal/mol|
|  sn= 9 | S(rot)=       0.00507649 Eh      3.19 kcal/mol|
|  sn=10 | S(rot)=       0.00497701 Eh      3.12 kcal/mol|
|  sn=11 | S(rot)=       0.00488702 Eh      3.07 kcal/mol|
|  sn=12 | S(rot)=       0.00480487 Eh      3.02 kcal/mol|
 linear molecules ---------------------------------------
|  Dinfh | S(rot)=       0.00375272 Eh      2.35 kcal/mol|
|  Cinfv | S(rot)=       0.00440718 Eh      2.77 kcal/mol|
 --------------------------------------------------------


-------------------
GIBBS FREE ENERGY
-------------------

The Gibbs free energy is G = H - T*S

Total enthalpy                    ...    -40.45681855 Eh 
Total entropy correction          ...     -0.02216342 Eh    -13.91 kcal/mol
-----------------------------------------------------------------------
Final Gibbs free energy         ...    -40.47898197 Eh

For completeness - the Gibbs free energy minus the electronic energy
G-E(el)                           ...      0.02621194 Eh     16.45 kcal/mol


Maximum memory used throughout the entire PROP-calculation: 26.9 MB

--------------------------------
SUGGESTED CITATIONS FOR THIS RUN
--------------------------------

Below you find a list of papers that are relevant to this ORCA run
We neither can nor want to force you to cite these papers, but we appreciate if you do
You receive ORCA, which is the product of decades of hard work by many enthusiastic individuals, for free
The only thing we kindly ask in return is that you cite our papers,
We deeply appreciate it, if you show your appreciation for ORCA by not just citing the generic ORCA reference.

Please note that relegating all ORCA citations to the supporting information does *not* help us.
SI sections are not indexed - citations you put there will not count into any citation statistics
But we need these citations in order to attract the funding resources that allow us to do what we are doing

Therefore, if you are a happy ORCA user, please consider citing a few of the papers listed below in the main body of your paper

In addition to the list printed below, the program has created the file orca.bibtex that contains the list in bibtex format
You can import this file easily into all common literature databanks and citation aid programs

It goes without saying that in many instances, there are alternative algorithms to achieve similar
results as the ones you have gotten from ORCA. It is, of course, also the case that in some instances
ORCA just re-implements algorithms worked out by others. We are fully aware of that and we are also
fully appreciative of our colleagues work. Hence this citation list should not be read as indicating
that the listed papers, which are focused on our own work, are the only ones worth citing. It simply
meant to make it easier for users to cite ORCA specific papers. It is not a substitute for doing your
own literature research and citing the relevant literature in a scientifically appropriate manner.

List of essential papers. We consider these as the minimum necessary citations

  1. Neese, F.
     Software update: the ORCA program system, version 6.0
     WIRES Comput. Molec. Sci. 2025 15(1), e70019
     doi.org/10.1002/wcms.70019

List of papers to cite with high priority. The work reported in these papers was absolutely
necessary for this run to complete.
Our perspective: the developers of density functionals and basis sets usually get cited in chemistry papers
Good! But without the algorithms to do something with them, the functionals or basis sets would not do anything.
Hence, in our opinion, the algorithm design and method developments papers are equally worthy of getting cited

  1. Neese, F.
     An improvement of the resolution of the identity approximation for the formation of the Coulomb matrix
     J. Comp. Chem. 2003 24(14), 1740-1747
     doi.org/10.1002/jcc.10318
  2. Neese, F.; Wennmohs, F.; Hansen, A.; Becker, U.
     Efficient, approximate and parallel Hartree-Fock and hybrid DFT calculations. A 'chain-of-spheres' algorithm for the Hartree-Fock exchange
     Chem. Phys. 2009 356(1-3), 98-109
     doi.org/10.1016/j.chemphys.2008.10.036
  3. Grimme, S.; Antony, J.; Ehrlich, S.; Krieg, H.
     A consistent and accurate ab initio parametrization of density functional dispersion correction (DFT-D) for the 94 elements H-Pu
     J. Chem. Phys. 2010 132 , 154104
     doi.org/10.1063/1.3382344
  4. Grimme, S.; Ehrlich, S.; Goerigk, L.
     Effect of the damping function in dispersion corrected density functional theory
     J. Comput. Chem. 2011 32(7), 1456-1465
     doi.org/10.1002/jcc.21759
  5. Bykov, D.; Petrenko, T.; Izsak, R.; Kossmann, S.; Becker, U.; Valeev, E.; Neese, F.
     Efficient implementation of the analytic second derivatives of Hartree-Fock and hybrid DFT energies: a detailed analysis of different approximations
     Molec. Phys. 2015 113 , 1961-1977
     doi.org/10.1080/00268976.2015.1025114
  6. Helmich-Paris, B.; de Souza, B.; Neese, F.; Izsák, R.
     An improved chain of spheres for exchange algorithm
     J. Chem. Phys. 2021 155(10), 104109
     doi.org/10.1063/5.0058766
  7. Neese, F.
     The SHARK Integral Generation and Digestion System
     J. Comp. Chem. 2022 44(3), 381
     doi.org/10.1002/jcc.26942

List of suggested additional citations. These are papers that are important in the 'surrounding' of 
of this run, or papers that preceded the highly important papers. If you like your results we are grateful for a citation.

  1. Izsak, R.; Neese, F.
     An overlap fitted chain of spheres exchange method
     J. Chem. Phys. 2011 135 , 144105
     doi.org/10.1063/1.3646921
  2. Izsak, R.; Hansen, A.; Neese, F.
     The resolution of identity and chain of spheres approximations for the LPNO-CCSD singles Fock term
     Molec. Phys. 2012 110 , 2413-2417
     doi.org/10.1080/00268976.2012.687466
  3. Neese, F.
     The ORCA program system
     WIRES Comput. Molec. Sci. 2012 2(1), 73-78
     doi.org/10.1002/wcms.81
  4. Izsak, R.; Neese, F.; Klopper, W.
     Robust fitting techniques in the chain of spheres approximation to the Fock exchange: The role of the complementary space
     J. Chem. Phys. 2013 139 , 
     doi.org/10.1063/1.4819264
  5. Neese, F.
     Software update: the ORCA program system, version 4.0
     WIRES Comput. Molec. Sci. 2018 8(1), 1-6
     doi.org/10.1002/wcms.1327
  6. Neese, F.; Wennmohs, F.; Becker, U.; Riplinger, C.
     The ORCA quantum chemistry program package
     J. Chem. Phys. 2020 152(22), 224108
     doi.org/10.1063/5.0004608
  7. Neese, F.
     Software update: The ORCA program system—Version 5.0
     WIRES Comput. Molec. Sci. 2022 12(1), e1606
     doi.org/10.1002/wcms.1606

List of optional additional citations

  1. Neese, F.
     Approximate second-order SCF convergence for spin unrestricted wavefunctions
     Chem. Phys. Lett. 2000 325(1-3), 93-98
     doi.org/10.1016/s0009-2614(00)00662-x

Timings for individual modules:

Sum of individual times          ...       97.892 sec (=   1.632 min)
Startup calculation              ...        0.455 sec (=   0.008 min)   0.5 %
SCF iterations                   ...        3.487 sec (=   0.058 min)   3.6 %
Property integrals               ...       14.287 sec (=   0.238 min)  14.6 %
SCF Response                     ...        4.971 sec (=   0.083 min)   5.1 %
Property calculations            ...       74.691 sec (=   1.245 min)  76.3 %
                             ****ORCA TERMINATED NORMALLY****
TOTAL RUN TIME: 0 days 0 hours 1 minutes 38 seconds 340 msec
